# vtk DataFile Version 2.0
Unstructured Grid Example
ASCII
DATASET UNSTRUCTURED_GRID
POINTS 8 float
1.0 0.20000000298 1.0
1.0 -0.800000011921 1.0
1.0 0.20000000298 0.0
1.0 -0.800000011921 0.0
0.0 0.20000000298 1.0
0.0 -0.800000011921 1.0
0.0 0.20000000298 0.0
0.0 -0.800000011921 0.0
CELLS 1 9
8 4 5 7 6 0 1 3 2 
CELL_TYPES 1
12
POINT_DATA 8
SCALARS u1 float 1
LOOKUP_TABLE default
0.0010000000475
0.0010000000475
0.0010000000475
0.0010000000475
2.42784998968e-36
2.42784998968e-36
2.42784998968e-36
2.42784998968e-36
CELL_DATA 1
SCALARS PEEQ float 1
LOOKUP_TABLE default
5.37748908997
POINT_DATA 8
VECTORS U float
0.0010000000475 -0.000339999998687 -0.000339999998687
0.0010000000475 2.24971950791e-18 -0.000339999998687
0.0010000000475 -0.000339999998687 5.06972876297e-18
0.0010000000475 4.00805661223e-19 9.5951892265e-18
2.42784998968e-36 -0.000339999998687 -0.000339999998687
2.42784998968e-36 0.0 -0.000339999998687
2.42784998968e-36 -0.000339999998687 0.0
2.42784998968e-36 0.0 0.0
CELL_DATA 1
TENSORS S float
5.37748908997 1.26805662939e-16 2.97746136413e-16
1.26805662939e-16 -0.111493438482 8.02341834596e-17
2.97746136413e-16 8.02341834596e-17 -0.111493438482

CELL_DATA 1
TENSORS moron float
5.37748908997 1.26805662939e-16 2.97746136413e-16
1.26805662939e-16 -0.111493438482 8.02341834596e-17
2.97746136413e-16 8.02341834596e-17 -0.111493438482

